<?xml version="1.0" encoding="UTF-8"?>

<!-- generated on 2024-07-01 23:22:17 by Eclipse SUMO sumo Version 1.17.0
<configuration xmlns:xsi="http://www.w3.org/2001/XMLSchema-instance" xsi:noNamespaceSchemaLocation="http://sumo.dlr.de/xsd/sumoConfiguration.xsd">

    <input>
        <net-file value="noMergeArea.net.xml"/>
        <route-files value="nomergearea.rou.xml"/>
        <additional-files value="detectors.add.xml"/>
    </input>

    <time>
        <begin value="0"/>
        <end value="4800"/>
    </time>

    <processing>
        <extrapolate-departpos value="true"/>
        <collision.stoptime value="0"/>
        <time-to-teleport value="-1"/>
        <max-depart-delay value="-1"/>
        <emergency-insert value="true"/>
    </processing>

    <traci_server>
        <remote-port value="50990"/>
    </traci_server>

    <random_number>
        <seed value="43"/>
    </random_number>

    <gui_only>
        <start value="true"/>
    </gui_only>

</configuration>
-->

<meandata xmlns:xsi="http://www.w3.org/2001/XMLSchema-instance" xsi:noNamespaceSchemaLocation="http://sumo.dlr.de/xsd/meandata_file.xsd">
    <interval begin="0.00" end="30.00" id="M">
        <edge id="M0">
            <lane id="M0_0" sampledSeconds="17.63" traveltime="7.20" overlapTraveltime="7.44" density="3.90" laneDensity="3.90" occupancy="1.89" waitingTime="0.00" timeLoss="0.67" speed="20.91" speedRelative="0.94" departed="0" arrived="0" entered="3" left="2" laneChangedFrom="0" laneChangedTo="0"/>
            <lane id="M0_1" sampledSeconds="21.71" traveltime="7.01" overlapTraveltime="7.24" density="4.81" laneDensity="4.81" occupancy="2.33" waitingTime="0.00" timeLoss="0.63" speed="21.49" speedRelative="0.97" departed="0" arrived="0" entered="3" left="3" laneChangedFrom="0" laneChangedTo="0"/>
            <lane id="M0_2" sampledSeconds="16.00" traveltime="7.26" overlapTraveltime="7.50" density="3.54" laneDensity="3.54" occupancy="1.72" waitingTime="0.00" timeLoss="0.88" speed="20.74" speedRelative="0.93" departed="0" arrived="0" entered="3" left="1" laneChangedFrom="0" laneChangedTo="0"/>
        </edge>
        <edge id="M1">
            <lane id="M1_0" sampledSeconds="17.66" traveltime="35.90" overlapTraveltime="36.14" density="0.79" laneDensity="0.79" occupancy="0.39" waitingTime="0.00" timeLoss="0.58" speed="20.87" speedRelative="0.94" departed="0" arrived="0" entered="2" left="0" laneChangedFrom="1" laneChangedTo="0"/>
            <lane id="M1_1" sampledSeconds="27.14" traveltime="35.94" overlapTraveltime="36.18" density="1.21" laneDensity="1.21" occupancy="0.60" waitingTime="0.00" timeLoss="1.41" speed="20.85" speedRelative="0.94" departed="0" arrived="0" entered="3" left="0" laneChangedFrom="0" laneChangedTo="1"/>
            <lane id="M1_2" sampledSeconds="7.06" traveltime="34.94" overlapTraveltime="35.17" density="0.31" laneDensity="0.31" occupancy="0.15" waitingTime="0.00" timeLoss="0.28" speed="21.44" speedRelative="0.96" departed="0" arrived="0" entered="1" left="0" laneChangedFrom="0" laneChangedTo="0"/>
        </edge>
        <edge id="M2">
            <lane id="M2_0" sampledSeconds="0.00" departed="0" arrived="0" entered="0" left="0" laneChangedFrom="0" laneChangedTo="0"/>
            <lane id="M2_1" sampledSeconds="0.00" departed="0" arrived="0" entered="0" left="0" laneChangedFrom="0" laneChangedTo="0"/>
            <lane id="M2_2" sampledSeconds="0.00" departed="0" arrived="0" entered="0" left="0" laneChangedFrom="0" laneChangedTo="0"/>
        </edge>
        <edge id="M3">
            <lane id="M3_0" sampledSeconds="0.00" departed="0" arrived="0" entered="0" left="0" laneChangedFrom="0" laneChangedTo="0"/>
            <lane id="M3_1" sampledSeconds="0.00" departed="0" arrived="0" entered="0" left="0" laneChangedFrom="0" laneChangedTo="0"/>
            <lane id="M3_2" sampledSeconds="0.00" departed="0" arrived="0" entered="0" left="0" laneChangedFrom="0" laneChangedTo="0"/>
        </edge>
        <edge id="M4">
            <lane id="M4_0" sampledSeconds="0.00" departed="0" arrived="0" entered="0" left="0" laneChangedFrom="0" laneChangedTo="0"/>
            <lane id="M4_1" sampledSeconds="0.00" departed="0" arrived="0" entered="0" left="0" laneChangedFrom="0" laneChangedTo="0"/>
            <lane id="M4_2" sampledSeconds="0.00" departed="0" arrived="0" entered="0" left="0" laneChangedFrom="0" laneChangedTo="0"/>
        </edge>
        <edge id="R0">
            <lane id="R0_0" sampledSeconds="2.79" traveltime="50.59" overlapTraveltime="51.07" density="0.18" laneDensity="0.18" occupancy="0.08" waitingTime="0.00" timeLoss="0.25" speed="10.45" speedRelative="0.94" departed="0" arrived="0" entered="1" left="0" laneChangedFrom="0" laneChangedTo="0"/>
            <lane id="R0_1" sampledSeconds="0.00" departed="0" arrived="0" entered="0" left="0" laneChangedFrom="0" laneChangedTo="0"/>
        </edge>
        <edge id="R1">
            <lane id="R1_0" sampledSeconds="0.00" departed="0" arrived="0" entered="0" left="0" laneChangedFrom="0" laneChangedTo="0"/>
            <lane id="R1_1" sampledSeconds="0.00" departed="0" arrived="0" entered="0" left="0" laneChangedFrom="0" laneChangedTo="0"/>
        </edge>
        <edge id="R2">
            <lane id="R2_0" sampledSeconds="0.00" departed="0" arrived="0" entered="0" left="0" laneChangedFrom="0" laneChangedTo="0"/>
            <lane id="R2_1" sampledSeconds="0.00" departed="0" arrived="0" entered="0" left="0" laneChangedFrom="0" laneChangedTo="0"/>
        </edge>
        <edge id="VM">
            <lane id="VM_0" sampledSeconds="22.83" traveltime="7.18" overlapTraveltime="7.42" density="5.07" laneDensity="5.07" occupancy="2.49" waitingTime="0.00" timeLoss="0.78" speed="20.90" speedRelative="0.94" departed="3" arrived="0" entered="0" left="3" laneChangedFrom="0" laneChangedTo="0"/>
            <lane id="VM_1" sampledSeconds="30.46" traveltime="7.26" overlapTraveltime="7.50" density="6.76" laneDensity="6.76" occupancy="3.34" waitingTime="0.00" timeLoss="1.98" speed="20.69" speedRelative="0.93" departed="5" arrived="0" entered="0" left="3" laneChangedFrom="0" laneChangedTo="0"/>
            <lane id="VM_2" sampledSeconds="30.84" traveltime="7.07" overlapTraveltime="7.31" density="6.85" laneDensity="6.85" occupancy="3.38" waitingTime="0.00" timeLoss="1.24" speed="21.22" speedRelative="0.95" departed="6" arrived="0" entered="0" left="3" laneChangedFrom="0" laneChangedTo="0"/>
        </edge>
        <edge id="VR">
            <lane id="VR_0" sampledSeconds="18.67" traveltime="18.30" overlapTraveltime="18.79" density="3.11" laneDensity="3.11" occupancy="1.53" waitingTime="0.00" timeLoss="0.89" speed="10.93" speedRelative="0.98" departed="1" arrived="0" entered="0" left="1" laneChangedFrom="0" laneChangedTo="0"/>
            <lane id="VR_1" sampledSeconds="39.00" traveltime="19.69" overlapTraveltime="20.18" density="6.49" laneDensity="6.49" occupancy="3.24" waitingTime="0.00" timeLoss="2.32" speed="10.18" speedRelative="0.92" departed="3" arrived="0" entered="0" left="0" laneChangedFrom="0" laneChangedTo="0"/>
        </edge>
    </interval>
    <interval begin="30.00" end="60.00" id="M">
        <edge id="M0">
            <lane id="M0_0" sampledSeconds="35.32" traveltime="7.20" overlapTraveltime="7.44" density="7.82" laneDensity="7.82" occupancy="3.78" waitingTime="0.00" timeLoss="1.41" speed="20.90" speedRelative="0.94" departed="0" arrived="0" entered="6" left="4" laneChangedFrom="0" laneChangedTo="0"/>
            <lane id="M0_1" sampledSeconds="34.96" traveltime="7.12" overlapTraveltime="7.35" density="7.74" laneDensity="7.74" occupancy="3.74" waitingTime="0.00" timeLoss="2.01" speed="21.15" speedRelative="0.95" departed="0" arrived="0" entered="6" left="4" laneChangedFrom="0" laneChangedTo="0"/>
            <lane id="M0_2" sampledSeconds="32.72" traveltime="7.06" overlapTraveltime="7.29" density="7.25" laneDensity="7.25" occupancy="3.51" waitingTime="0.00" timeLoss="1.56" speed="21.32" speedRelative="0.96" departed="0" arrived="0" entered="4" left="5" laneChangedFrom="0" laneChangedTo="0"/>
        </edge>
        <edge id="M1">
            <lane id="M1_0" sampledSeconds="72.85" traveltime="36.31" overlapTraveltime="36.55" density="3.24" laneDensity="3.24" occupancy="1.61" waitingTime="0.00" timeLoss="2.87" speed="20.63" speedRelative="0.93" departed="0" arrived="0" entered="4" left="1" laneChangedFrom="0" laneChangedTo="0"/>
            <lane id="M1_1" sampledSeconds="167.14" traveltime="35.08" overlapTraveltime="35.32" density="7.44" laneDensity="7.44" occupancy="3.70" waitingTime="0.00" timeLoss="6.57" speed="21.35" speedRelative="0.96" departed="0" arrived="0" entered="4" left="3" laneChangedFrom="0" laneChangedTo="0"/>
            <lane id="M1_2" sampledSeconds="136.45" traveltime="35.55" overlapTraveltime="35.79" density="6.07" laneDensity="6.07" occupancy="3.02" waitingTime="0.00" timeLoss="6.89" speed="21.07" speedRelative="0.95" departed="0" arrived="0" entered="5" left="1" laneChangedFrom="0" laneChangedTo="0"/>
        </edge>
        <edge id="M2">
            <lane id="M2_0" sampledSeconds="6.76" traveltime="12.18" overlapTraveltime="12.42" density="0.90" laneDensity="0.90" occupancy="0.44" waitingTime="0.00" timeLoss="0.25" speed="20.51" speedRelative="0.92" departed="0" arrived="0" entered="1" left="0" laneChangedFrom="0" laneChangedTo="0"/>
            <lane id="M2_1" sampledSeconds="13.39" traveltime="11.70" overlapTraveltime="11.93" density="1.79" laneDensity="1.79" occupancy="0.87" waitingTime="0.00" timeLoss="0.44" speed="21.35" speedRelative="0.96" departed="0" arrived="0" entered="3" left="0" laneChangedFrom="0" laneChangedTo="0"/>
            <lane id="M2_2" sampledSeconds="2.42" traveltime="11.58" overlapTraveltime="11.81" density="0.32" laneDensity="0.32" occupancy="0.15" waitingTime="0.00" timeLoss="0.08" speed="21.58" speedRelative="0.97" departed="0" arrived="0" entered="1" left="0" laneChangedFrom="0" laneChangedTo="0"/>
        </edge>
        <edge id="M3">
            <lane id="M3_0" sampledSeconds="0.00" departed="0" arrived="0" entered="0" left="0" laneChangedFrom="0" laneChangedTo="0"/>
            <lane id="M3_1" sampledSeconds="0.00" departed="0" arrived="0" entered="0" left="0" laneChangedFrom="0" laneChangedTo="0"/>
            <lane id="M3_2" sampledSeconds="0.00" departed="0" arrived="0" entered="0" left="0" laneChangedFrom="0" laneChangedTo="0"/>
        </edge>
        <edge id="M4">
            <lane id="M4_0" sampledSeconds="0.00" departed="0" arrived="0" entered="0" left="0" laneChangedFrom="0" laneChangedTo="0"/>
            <lane id="M4_1" sampledSeconds="0.00" departed="0" arrived="0" entered="0" left="0" laneChangedFrom="0" laneChangedTo="0"/>
            <lane id="M4_2" sampledSeconds="0.00" departed="0" arrived="0" entered="0" left="0" laneChangedFrom="0" laneChangedTo="0"/>
        </edge>
        <edge id="R0">
            <lane id="R0_0" sampledSeconds="20.00" traveltime="49.88" overlapTraveltime="50.35" density="1.26" laneDensity="1.26" occupancy="0.63" waitingTime="0.00" timeLoss="1.54" speed="10.60" speedRelative="0.95" departed="0" arrived="0" entered="0" left="0" laneChangedFrom="1" laneChangedTo="0"/>
            <lane id="R0_1" sampledSeconds="79.99" traveltime="52.10" overlapTraveltime="52.59" density="5.04" laneDensity="5.04" occupancy="2.49" waitingTime="0.00" timeLoss="5.47" speed="10.14" speedRelative="0.91" departed="0" arrived="0" entered="4" left="0" laneChangedFrom="0" laneChangedTo="1"/>
        </edge>
        <edge id="R1">
            <lane id="R1_0" sampledSeconds="0.00" departed="0" arrived="0" entered="0" left="0" laneChangedFrom="0" laneChangedTo="0"/>
            <lane id="R1_1" sampledSeconds="0.00" departed="0" arrived="0" entered="0" left="0" laneChangedFrom="0" laneChangedTo="0"/>
        </edge>
        <edge id="R2">
            <lane id="R2_0" sampledSeconds="0.00" departed="0" arrived="0" entered="0" left="0" laneChangedFrom="0" laneChangedTo="0"/>
            <lane id="R2_1" sampledSeconds="0.00" departed="0" arrived="0" entered="0" left="0" laneChangedFrom="0" laneChangedTo="0"/>
        </edge>
        <edge id="VM">
            <lane id="VM_0" sampledSeconds="60.57" traveltime="7.39" overlapTraveltime="7.63" density="13.45" laneDensity="13.45" occupancy="6.64" waitingTime="0.00" timeLoss="4.97" speed="20.33" speedRelative="0.92" departed="11" arrived="0" entered="0" left="6" laneChangedFrom="3" laneChangedTo="0"/>
            <lane id="VM_1" sampledSeconds="40.42" traveltime="7.15" overlapTraveltime="7.38" density="8.97" laneDensity="8.97" occupancy="4.41" waitingTime="0.00" timeLoss="2.81" speed="21.01" speedRelative="0.95" departed="4" arrived="0" entered="0" left="6" laneChangedFrom="0" laneChangedTo="3"/>
            <lane id="VM_2" sampledSeconds="29.61" traveltime="7.15" overlapTraveltime="7.38" density="6.57" laneDensity="6.57" occupancy="3.24" waitingTime="0.00" timeLoss="1.17" speed="21.03" speedRelative="0.95" departed="2" arrived="0" entered="0" left="4" laneChangedFrom="0" laneChangedTo="0"/>
        </edge>
        <edge id="VR">
            <lane id="VR_0" sampledSeconds="21.00" traveltime="19.20" overlapTraveltime="19.68" density="3.49" laneDensity="3.49" occupancy="1.75" waitingTime="0.00" timeLoss="1.13" speed="10.44" speedRelative="0.94" departed="3" arrived="0" entered="0" left="0" laneChangedFrom="0" laneChangedTo="0"/>
            <lane id="VR_1" sampledSeconds="43.91" traveltime="20.19" overlapTraveltime="20.69" density="7.30" laneDensity="7.30" occupancy="3.57" waitingTime="0.00" timeLoss="3.53" speed="9.93" speedRelative="0.89" departed="1" arrived="0" entered="0" left="4" laneChangedFrom="0" laneChangedTo="0"/>
        </edge>
    </interval>
    <interval begin="60.00" end="90.00" id="M">
        <edge id="M0">
            <lane id="M0_0" sampledSeconds="53.32" traveltime="7.49" overlapTraveltime="7.74" density="11.81" laneDensity="11.81" occupancy="5.72" waitingTime="0.00" timeLoss="5.41" speed="20.10" speedRelative="0.90" departed="0" arrived="0" entered="6" left="8" laneChangedFrom="0" laneChangedTo="0"/>
            <lane id="M0_1" sampledSeconds="80.17" traveltime="7.64" overlapTraveltime="7.91" density="17.76" laneDensity="17.76" occupancy="8.62" waitingTime="0.00" timeLoss="10.31" speed="19.66" speedRelative="0.88" departed="0" arrived="0" entered="10" left="8" laneChangedFrom="3" laneChangedTo="0"/>
            <lane id="M0_2" sampledSeconds="76.47" traveltime="7.49" overlapTraveltime="7.76" density="16.94" laneDensity="16.94" occupancy="8.16" waitingTime="0.00" timeLoss="6.39" speed="20.03" speedRelative="0.90" departed="0" arrived="0" entered="11" left="11" laneChangedFrom="0" laneChangedTo="3"/>
        </edge>
        <edge id="M1">
            <lane id="M1_0" sampledSeconds="206.30" traveltime="36.06" overlapTraveltime="36.30" density="9.18" laneDensity="9.18" occupancy="4.56" waitingTime="0.00" timeLoss="11.33" speed="20.78" speedRelative="0.94" departed="0" arrived="0" entered="8" left="3" laneChangedFrom="2" laneChangedTo="0"/>
            <lane id="M1_1" sampledSeconds="182.65" traveltime="36.01" overlapTraveltime="36.25" density="8.13" laneDensity="8.13" occupancy="4.03" waitingTime="0.00" timeLoss="13.85" speed="20.81" speedRelative="0.94" departed="0" arrived="0" entered="8" left="5" laneChangedFrom="2" laneChangedTo="2"/>
            <lane id="M1_2" sampledSeconds="232.46" traveltime="36.41" overlapTraveltime="36.65" density="10.34" laneDensity="10.34" occupancy="5.12" waitingTime="0.00" timeLoss="16.22" speed="20.58" speedRelative="0.93" departed="0" arrived="0" entered="11" left="5" laneChangedFrom="0" laneChangedTo="2"/>
        </edge>
        <edge id="M2">
            <lane id="M2_0" sampledSeconds="27.36" traveltime="12.21" overlapTraveltime="12.45" density="3.65" laneDensity="3.65" occupancy="1.79" waitingTime="0.00" timeLoss="1.42" speed="20.48" speedRelative="0.92" departed="0" arrived="0" entered="3" left="2" laneChangedFrom="0" laneChangedTo="0"/>
            <lane id="M2_1" sampledSeconds="71.07" traveltime="11.86" overlapTraveltime="12.09" density="9.48" laneDensity="9.48" occupancy="4.66" waitingTime="0.00" timeLoss="3.71" speed="21.07" speedRelative="0.95" departed="0" arrived="0" entered="5" left="5" laneChangedFrom="0" laneChangedTo="0"/>
            <lane id="M2_2" sampledSeconds="70.72" traveltime="12.04" overlapTraveltime="12.29" density="9.43" laneDensity="9.43" occupancy="4.64" waitingTime="0.00" timeLoss="4.79" speed="20.74" speedRelative="0.93" departed="0" arrived="0" entered="5" left="5" laneChangedFrom="0" laneChangedTo="0"/>
        </edge>
        <edge id="M3">
            <lane id="M3_0" sampledSeconds="9.52" traveltime="4.70" overlapTraveltime="4.95" density="3.29" laneDensity="3.29" occupancy="1.58" waitingTime="0.00" timeLoss="0.34" speed="20.47" speedRelative="0.92" departed="0" arrived="0" entered="2" left="1" laneChangedFrom="0" laneChangedTo="0"/>
            <lane id="M3_1" sampledSeconds="18.93" traveltime="4.50" overlapTraveltime="4.73" density="6.55" laneDensity="6.55" occupancy="3.11" waitingTime="0.00" timeLoss="0.68" speed="21.40" speedRelative="0.96" departed="0" arrived="0" entered="4" left="4" laneChangedFrom="0" laneChangedTo="0"/>
            <lane id="M3_2" sampledSeconds="15.50" traveltime="4.69" overlapTraveltime="4.93" density="5.36" laneDensity="5.36" occupancy="2.56" waitingTime="0.00" timeLoss="0.98" speed="20.55" speedRelative="0.92" departed="0" arrived="0" entered="4" left="2" laneChangedFrom="0" laneChangedTo="0"/>
        </edge>
        <edge id="M4">
            <lane id="M4_0" sampledSeconds="15.56" traveltime="15.32" overlapTraveltime="15.56" density="1.65" laneDensity="1.65" occupancy="0.81" waitingTime="0.00" timeLoss="0.57" speed="20.53" speedRelative="0.92" departed="0" arrived="1" entered="1" left="0" laneChangedFrom="0" laneChangedTo="0"/>
            <lane id="M4_1" sampledSeconds="54.68" traveltime="14.79" overlapTraveltime="15.03" density="5.80" laneDensity="5.80" occupancy="2.86" waitingTime="0.00" timeLoss="2.24" speed="21.26" speedRelative="0.96" departed="0" arrived="2" entered="4" left="0" laneChangedFrom="0" laneChangedTo="0"/>
            <lane id="M4_2" sampledSeconds="15.87" traveltime="14.69" overlapTraveltime="14.92" density="1.68" laneDensity="1.68" occupancy="0.83" waitingTime="0.00" timeLoss="0.58" speed="21.40" speedRelative="0.96" departed="0" arrived="1" entered="2" left="0" laneChangedFrom="0" laneChangedTo="0"/>
        </edge>
        <edge id="R0">
            <lane id="R0_0" sampledSeconds="49.07" traveltime="51.05" overlapTraveltime="51.54" density="3.10" laneDensity="3.10" occupancy="1.52" waitingTime="0.00" timeLoss="3.36" speed="10.35" speedRelative="0.93" departed="0" arrived="0" entered="3" left="0" laneChangedFrom="1" laneChangedTo="0"/>
            <lane id="R0_1" sampledSeconds="140.32" traveltime="51.67" overlapTraveltime="52.17" density="8.85" laneDensity="8.85" occupancy="4.39" waitingTime="0.00" timeLoss="9.27" speed="10.23" speedRelative="0.92" departed="0" arrived="0" entered="1" left="3" laneChangedFrom="0" laneChangedTo="1"/>
        </edge>
        <edge id="R1">
            <lane id="R1_0" sampledSeconds="0.00" departed="0" arrived="0" entered="0" left="0" laneChangedFrom="0" laneChangedTo="0"/>
            <lane id="R1_1" sampledSeconds="13.97" traveltime="5.08" overlapTraveltime="5.57" density="8.89" laneDensity="8.89" occupancy="4.05" waitingTime="0.00" timeLoss="1.07" speed="10.30" speedRelative="0.93" departed="0" arrived="0" entered="3" left="2" laneChangedFrom="0" laneChangedTo="0"/>
        </edge>
        <edge id="R2">
            <lane id="R2_0" sampledSeconds="0.00" departed="0" arrived="0" entered="0" left="0" laneChangedFrom="0" laneChangedTo="0"/>
            <lane id="R2_1" sampledSeconds="8.95" traveltime="7.61" overlapTraveltime="8.08" density="3.70" laneDensity="3.70" occupancy="1.72" waitingTime="0.00" timeLoss="0.95" speed="10.59" speedRelative="0.95" departed="0" arrived="0" entered="2" left="1" laneChangedFrom="0" laneChangedTo="0"/>
        </edge>
        <edge id="VM">
            <lane id="VM_0" sampledSeconds="48.28" traveltime="7.44" overlapTraveltime="7.68" density="10.72" laneDensity="10.72" occupancy="5.29" waitingTime="0.00" timeLoss="4.58" speed="20.21" speedRelative="0.91" departed="5" arrived="0" entered="0" left="6" laneChangedFrom="1" laneChangedTo="0"/>
            <lane id="VM_1" sampledSeconds="71.08" traveltime="7.67" overlapTraveltime="7.91" density="15.78" laneDensity="15.78" occupancy="7.75" waitingTime="0.00" timeLoss="8.91" speed="19.61" speedRelative="0.88" departed="7" arrived="0" entered="0" left="10" laneChangedFrom="1" laneChangedTo="1"/>
            <lane id="VM_2" sampledSeconds="87.98" traveltime="7.18" overlapTraveltime="7.42" density="19.53" laneDensity="19.53" occupancy="9.62" waitingTime="0.00" timeLoss="4.97" speed="20.91" speedRelative="0.94" departed="11" arrived="0" entered="0" left="11" laneChangedFrom="0" laneChangedTo="1"/>
        </edge>
        <edge id="VR">
            <lane id="VR_0" sampledSeconds="38.30" traveltime="19.11" overlapTraveltime="19.60" density="6.37" laneDensity="6.37" occupancy="3.13" waitingTime="0.00" timeLoss="2.34" speed="10.48" speedRelative="0.94" departed="0" arrived="0" entered="0" left="3" laneChangedFrom="0" laneChangedTo="0"/>
            <lane id="VR_1" sampledSeconds="45.51" traveltime="18.41" overlapTraveltime="18.85" density="7.57" laneDensity="7.57" occupancy="3.77" waitingTime="0.00" timeLoss="2.93" speed="10.89" speedRelative="0.98" departed="3" arrived="0" entered="0" left="1" laneChangedFrom="0" laneChangedTo="0"/>
        </edge>
    </interval>
    <interval begin="90.00" end="120.00" id="M">
        <edge id="M0">
            <lane id="M0_0" sampledSeconds="40.99" traveltime="7.18" overlapTraveltime="7.42" density="9.08" laneDensity="9.08" occupancy="4.39" waitingTime="0.00" timeLoss="1.81" speed="20.96" speedRelative="0.94" departed="0" arrived="0" entered="6" left="5" laneChangedFrom="0" laneChangedTo="0"/>
            <lane id="M0_1" sampledSeconds="32.84" traveltime="7.13" overlapTraveltime="7.36" density="7.27" laneDensity="7.27" occupancy="3.52" waitingTime="0.00" timeLoss="1.56" speed="21.12" speedRelative="0.95" departed="0" arrived="0" entered="4" left="5" laneChangedFrom="0" laneChangedTo="0"/>
            <lane id="M0_2" sampledSeconds="58.88" traveltime="6.97" overlapTraveltime="7.20" density="13.04" laneDensity="13.04" occupancy="6.31" waitingTime="0.00" timeLoss="1.76" speed="21.59" speedRelative="0.97" departed="0" arrived="0" entered="6" left="10" laneChangedFrom="0" laneChangedTo="0"/>
        </edge>
        <edge id="M1">
            <lane id="M1_0" sampledSeconds="171.09" traveltime="36.49" overlapTraveltime="36.73" density="7.61" laneDensity="7.61" occupancy="3.78" waitingTime="0.00" timeLoss="12.38" speed="20.53" speedRelative="0.92" departed="0" arrived="0" entered="5" left="5" laneChangedFrom="3" laneChangedTo="1"/>
            <lane id="M1_1" sampledSeconds="236.23" traveltime="37.87" overlapTraveltime="38.11" density="10.51" laneDensity="10.51" occupancy="5.23" waitingTime="0.00" timeLoss="27.45" speed="19.79" speedRelative="0.89" departed="0" arrived="0" entered="5" left="5" laneChangedFrom="2" laneChangedTo="4"/>
            <lane id="M1_2" sampledSeconds="479.71" traveltime="38.00" overlapTraveltime="38.24" density="21.34" laneDensity="21.34" occupancy="10.62" waitingTime="0.00" timeLoss="54.47" speed="19.72" speedRelative="0.89" departed="0" arrived="0" entered="10" left="9" laneChangedFrom="1" laneChangedTo="1"/>
        </edge>
        <edge id="M2">
            <lane id="M2_0" sampledSeconds="67.47" traveltime="12.17" overlapTraveltime="12.41" density="9.00" laneDensity="9.00" occupancy="4.43" waitingTime="0.00" timeLoss="4.04" speed="20.54" speedRelative="0.92" departed="0" arrived="0" entered="5" left="4" laneChangedFrom="1" laneChangedTo="0"/>
            <lane id="M2_1" sampledSeconds="63.01" traveltime="11.99" overlapTraveltime="12.22" density="8.41" laneDensity="8.41" occupancy="4.11" waitingTime="0.00" timeLoss="4.89" speed="20.85" speedRelative="0.94" departed="0" arrived="0" entered="5" left="7" laneChangedFrom="0" laneChangedTo="1"/>
            <lane id="M2_2" sampledSeconds="70.37" traveltime="12.06" overlapTraveltime="12.29" density="9.39" laneDensity="9.39" occupancy="4.59" waitingTime="0.00" timeLoss="3.95" speed="20.73" speedRelative="0.93" departed="0" arrived="0" entered="9" left="4" laneChangedFrom="0" laneChangedTo="0"/>
        </edge>
        <edge id="M3">
            <lane id="M3_0" sampledSeconds="36.25" traveltime="5.00" overlapTraveltime="5.24" density="12.55" laneDensity="12.55" occupancy="5.92" waitingTime="0.00" timeLoss="3.96" speed="19.35" speedRelative="0.87" departed="0" arrived="0" entered="8" left="7" laneChangedFrom="0" laneChangedTo="0"/>
            <lane id="M3_1" sampledSeconds="33.12" traveltime="4.56" overlapTraveltime="4.79" density="11.46" laneDensity="11.46" occupancy="5.46" waitingTime="0.00" timeLoss="2.15" speed="21.13" speedRelative="0.95" departed="0" arrived="0" entered="7" left="6" laneChangedFrom="0" laneChangedTo="0"/>
            <lane id="M3_2" sampledSeconds="32.98" traveltime="4.57" overlapTraveltime="4.81" density="11.41" laneDensity="11.41" occupancy="5.42" waitingTime="0.00" timeLoss="2.07" speed="21.06" speedRelative="0.95" departed="0" arrived="0" entered="6" left="8" laneChangedFrom="0" laneChangedTo="0"/>
        </edge>
        <edge id="M4">
            <lane id="M4_0" sampledSeconds="82.57" traveltime="15.05" overlapTraveltime="15.28" density="8.75" laneDensity="8.75" occupancy="4.31" waitingTime="0.00" timeLoss="3.80" speed="20.90" speedRelative="0.94" departed="0" arrived="3" entered="7" left="0" laneChangedFrom="0" laneChangedTo="0"/>
            <lane id="M4_1" sampledSeconds="64.64" traveltime="14.94" overlapTraveltime="15.18" density="6.85" laneDensity="6.85" occupancy="3.37" waitingTime="0.00" timeLoss="4.09" speed="21.05" speedRelative="0.95" departed="0" arrived="5" entered="6" left="0" laneChangedFrom="0" laneChangedTo="0"/>
            <lane id="M4_2" sampledSeconds="98.69" traveltime="15.23" overlapTraveltime="15.47" density="10.46" laneDensity="10.46" occupancy="5.15" waitingTime="0.00" timeLoss="6.95" speed="20.65" speedRelative="0.93" departed="0" arrived="6" entered="8" left="0" laneChangedFrom="0" laneChangedTo="0"/>
        </edge>
        <edge id="R0">
            <lane id="R0_0" sampledSeconds="7.00" traveltime="50.28" overlapTraveltime="50.76" density="0.44" laneDensity="0.44" occupancy="0.22" waitingTime="0.00" timeLoss="0.38" speed="10.51" speedRelative="0.95" departed="0" arrived="0" entered="0" left="0" laneChangedFrom="2" laneChangedTo="0"/>
            <lane id="R0_1" sampledSeconds="191.05" traveltime="50.32" overlapTraveltime="50.82" density="12.05" laneDensity="12.05" occupancy="5.99" waitingTime="0.00" timeLoss="13.53" speed="10.50" speedRelative="0.94" departed="0" arrived="0" entered="2" left="3" laneChangedFrom="0" laneChangedTo="2"/>
        </edge>
        <edge id="R1">
            <lane id="R1_0" sampledSeconds="0.00" departed="0" arrived="0" entered="0" left="0" laneChangedFrom="0" laneChangedTo="0"/>
            <lane id="R1_1" sampledSeconds="15.32" traveltime="5.16" overlapTraveltime="5.65" density="9.75" laneDensity="9.75" occupancy="4.40" waitingTime="0.00" timeLoss="0.84" speed="10.15" speedRelative="0.91" departed="0" arrived="0" entered="3" left="3" laneChangedFrom="0" laneChangedTo="0"/>
        </edge>
        <edge id="R2">
            <lane id="R2_0" sampledSeconds="0.00" departed="0" arrived="0" entered="0" left="0" laneChangedFrom="0" laneChangedTo="0"/>
            <lane id="R2_1" sampledSeconds="29.74" traveltime="8.02" overlapTraveltime="8.51" density="12.30" laneDensity="12.30" occupancy="5.83" waitingTime="0.00" timeLoss="2.59" speed="10.06" speedRelative="0.91" departed="0" arrived="0" entered="3" left="3" laneChangedFrom="0" laneChangedTo="0"/>
        </edge>
        <edge id="VM">
            <lane id="VM_0" sampledSeconds="54.90" traveltime="7.05" overlapTraveltime="7.28" density="12.19" laneDensity="12.19" occupancy="6.01" waitingTime="0.00" timeLoss="1.87" speed="21.30" speedRelative="0.96" departed="8" arrived="0" entered="0" left="6" laneChangedFrom="0" laneChangedTo="0"/>
            <lane id="VM_1" sampledSeconds="39.82" traveltime="7.11" overlapTraveltime="7.34" density="8.84" laneDensity="8.84" occupancy="4.37" waitingTime="0.00" timeLoss="2.02" speed="21.14" speedRelative="0.95" departed="8" arrived="0" entered="0" left="4" laneChangedFrom="0" laneChangedTo="0"/>
            <lane id="VM_2" sampledSeconds="41.80" traveltime="7.04" overlapTraveltime="7.28" density="9.28" laneDensity="9.28" occupancy="4.56" waitingTime="0.00" timeLoss="1.44" speed="21.31" speedRelative="0.96" departed="5" arrived="0" entered="0" left="6" laneChangedFrom="0" laneChangedTo="0"/>
        </edge>
        <edge id="VR">
            <lane id="VR_0" sampledSeconds="14.00" traveltime="18.94" overlapTraveltime="19.41" density="2.33" laneDensity="2.33" occupancy="1.16" waitingTime="0.00" timeLoss="0.94" speed="10.58" speedRelative="0.95" departed="1" arrived="0" entered="0" left="0" laneChangedFrom="0" laneChangedTo="0"/>
            <lane id="VR_1" sampledSeconds="28.55" traveltime="18.45" overlapTraveltime="18.90" density="4.75" laneDensity="4.75" occupancy="2.34" waitingTime="0.00" timeLoss="1.76" speed="10.87" speedRelative="0.98" departed="1" arrived="0" entered="0" left="2" laneChangedFrom="0" laneChangedTo="0"/>
        </edge>